 Gaussian 16, Revision A.03,
 Gaussian 16:  ES64L-G16RevA.03 25-Dec-2016

 ----------------------------------------------------------------------
 #p em=GD3 iop(3/174=1000000,3/175=-1,3/176=1530000) stable=opt MN15/de
 f2qzvp
 ----------------------------------------------------------------------

 ---------------
 Have a nice day
 ---------------
 Symbolic Z-matrix:
 Charge =  0 Multiplicity = 2

                         Standard orientation:
 ---------------------------------------------------------------------
 Center     Atomic      Atomic             Coordinates (Angstroms)
 Number     Number       Type             X           Y           Z
 ---------------------------------------------------------------------
      1          6           0        0.000000    0.000000    0.000000
      2          1           0        0.000000    1.077700    0.000000
      3          1           0        0.933316   -0.538850    0.000000
      4          1           0       -0.933316   -0.538850    0.000000
 ---------------------------------------------------------------------

 SCF Done:  E(UMN15) =  -39.8046348982     A.U. after   11 cycles

 The electronic state is 2-A2".
 Alpha  occ. eigenvalues --  -10.16033  -0.75190  -0.47443  -0.47443  -0.27129
 Alpha virt. eigenvalues --    0.05830   0.12486   0.12486   0.16016   0.16016
 Alpha virt. eigenvalues --    0.16927   0.26103   0.38034   0.38034   0.38217
 Alpha virt. eigenvalues --    0.44777   0.44777   0.65289   0.65289   0.65478

  Beta  occ. eigenvalues --  -10.15219  -0.70799  -0.45954  -0.45954
  Beta virt. eigenvalues --   -0.03223   0.06392   0.12751   0.12751   0.15929
  Beta virt. eigenvalues --    0.15929   0.20457   0.29484   0.39022   0.39022
  Beta virt. eigenvalues --    0.39890   0.47489   0.47489   0.65309   0.65309

 Mulliken charges and spin densities:
               1          2
     1  C   -0.504698   1.313055
     2  H    0.168233  -0.104352
     3  H    0.168233  -0.104352
     4  H    0.168233  -0.104352
 Sum of Mulliken charges =   0.00000   1.00000

 Dipole moment (field-independent basis, Debye):
    X=             -0.0000    Y=              0.0000    Z=              0.0000  Tot=              0.0000
 Quadrupole moment (field-independent basis, Debye-Ang):
   XX=             -7.3869   YY=             -7.3869   ZZ=             -9.3054
   XY=             -0.0000   XZ=              0.0000   YZ=             -0.0000

 Normal termination of Gaussian 16 at Thu Mar 18 13:33:43 2021.
