 Gaussian 16, Revision A.03,
 Gaussian 16:  ES64L-G16RevA.03 25-Dec-2016

 ----------------------------------------------------------------------
 #p em=GD3 iop(3/174=1000000,3/175=-1,3/176=1530000) stable=opt MN15/de
 f2qzvp
 ----------------------------------------------------------------------

 ---------------
 Have a nice day
 ---------------
 Symbolic Z-matrix:
 Charge =  0 Multiplicity = 1

                         Standard orientation:
 ---------------------------------------------------------------------
 Center     Atomic      Atomic             Coordinates (Angstroms)
 Number     Number       Type             X           Y           Z
 ---------------------------------------------------------------------
      1          8           0        0.000000   -0.000000    0.117790
      2          1           0        0.000000    0.755453   -0.471161
      3          1           0       -0.000000   -0.755453   -0.471161
 ---------------------------------------------------------------------

 SCF Done:  E(RMN15) =  -76.4332934435     A.U. after   10 cycles

 The electronic state is 1-A1.
 Alpha  occ. eigenvalues --  -18.99446  -1.09527  -0.58735  -0.45244  -0.37773
 Alpha virt. eigenvalues --    0.03994   0.10030   0.27365   0.29973   0.30123
 Alpha virt. eigenvalues --    0.34275   0.42582   0.48906   0.55194   0.60915
 Alpha virt. eigenvalues --    0.64151   0.80975   0.93230   0.95837   1.02639

 Mulliken charges:
               1
     1  O   -0.560380
     2  H    0.280190
     3  H    0.280190
 Sum of Mulliken charges =   0.00000

 Dipole moment (field-independent basis, Debye):
    X=             -0.0000    Y=             -0.0000    Z=             -1.9229  Tot=              1.9229
 Quadrupole moment (field-independent basis, Debye-Ang):
   XX=             -7.6762   YY=             -4.4686   ZZ=             -6.4031
   XY=              0.0000   XZ=              0.0000   YZ=              0.0000

 Normal termination of Gaussian 16 at Thu Mar 18 11:48:51 2021.
